created by fftool

648 atoms
432 bonds
216 angles
2 atom types
1 bond types
1 angle types
0.000000 15.000000 xlo xhi
0.000000 15.000000 ylo yhi
0.000000 30.000000 zlo zhi

Masses

   1 1.600e+01  # Ow
   2 1.008e+00  # Hw

Bond Coeffs

   1   517.630258     1.000000  # Ow-Hw

Angle Coeffs

   1    37.950526   109.470000  # Hw-Ow-Hw

Atoms

      1       1    1  -0.8476  8.526821e+00  2.212674e+00  2.038023e+01  # Ow SPCE
      2       1    2   0.4238  9.308749e+00  1.802506e+00  1.991081e+01  # Hw SPCE
      3       1    2   0.4238  7.861516e+00  1.500528e+00  2.060432e+01  # Hw SPCE
      4       2    1  -0.8476  1.286830e+01  4.513825e+00  1.968284e+01  # Ow SPCE
      5       2    2   0.4238  1.264705e+01  3.645440e+00  1.923905e+01  # Hw SPCE
      6       2    2   0.4238  1.349984e+01  5.031664e+00  1.910578e+01  # Hw SPCE
      7       3    1  -0.8476  1.158439e+01  5.710822e+00  1.817585e+01  # Ow SPCE
      8       3    2   0.4238  1.208676e+01  6.573583e+00  1.823302e+01  # Hw SPCE
      9       3    2   0.4238  1.061264e+01  5.879382e+00  1.834100e+01  # Hw SPCE
     10       4    1  -0.8476  9.622955e+00  9.920286e+00  8.618261e+00  # Ow SPCE
     11       4    2   0.4238  9.848989e+00  9.102138e+00  8.089543e+00  # Hw SPCE
     12       4    2   0.4238  8.786567e+00  9.758222e+00  9.141893e+00  # Hw SPCE
     13       5    1  -0.8476  7.869104e+00  4.733357e+00  7.709445e+00  # Ow SPCE
     14       5    2   0.4238  6.929267e+00  5.065274e+00  7.628598e+00  # Hw SPCE
     15       5    2   0.4238  8.387491e+00  4.998996e+00  6.896604e+00  # Hw SPCE
     16       6    1  -0.8476  6.899045e+00  9.506547e+00  1.099060e+01  # Ow SPCE
     17       6    2   0.4238  6.770541e+00  9.718024e+00  1.002170e+01  # Hw SPCE
     18       6    2   0.4238  7.745646e+00  9.928864e+00  1.131451e+01  # Hw SPCE
     19       7    1  -0.8476  1.255814e+01  2.025419e+00  2.242004e+01  # Ow SPCE
     20       7    2   0.4238  1.350015e+01  1.690583e+00  2.244271e+01  # Hw SPCE
     21       7    2   0.4238  1.203366e+01  1.499963e+00  2.175011e+01  # Hw SPCE
     22       8    1  -0.8476  8.847331e+00  1.343043e+01  1.508744e+00  # Ow SPCE
     23       8    2   0.4238  9.753808e+00  1.300820e+01  1.504206e+00  # Hw SPCE
     24       8    2   0.4238  8.147082e+00  1.271658e+01  1.500338e+00  # Hw SPCE
     25       9    1  -0.8476  2.076897e+00  9.465089e+00  1.624873e+01  # Ow SPCE
     26       9    2   0.4238  1.499972e+00  9.414642e+00  1.543350e+01  # Hw SPCE
     27       9    2   0.4238  1.500008e+00  9.561004e+00  1.705990e+01  # Hw SPCE
     28      10    1  -0.8476  1.098185e+01  1.013484e+01  1.033492e+01  # Ow SPCE
     29      10    2   0.4238  1.131911e+01  1.082068e+01  1.097981e+01  # Hw SPCE
     30      10    2   0.4238  1.175672e+01  9.691503e+00  9.884325e+00  # Hw SPCE
     31      11    1  -0.8476  1.094041e+01  4.482397e+00  1.499990e+00  # Ow SPCE
     32      11    2   0.4238  1.064230e+01  5.436928e+00  1.500011e+00  # Hw SPCE
     33      11    2   0.4238  1.013983e+01  3.883175e+00  1.499979e+00  # Hw SPCE
     34      12    1  -0.8476  6.790912e+00  1.047968e+01  2.018224e+00  # Ow SPCE
     35      12    2   0.4238  7.337683e+00  1.055845e+01  2.851793e+00  # Hw SPCE
     36      12    2   0.4238  5.852591e+00  1.023002e+01  2.257435e+00  # Hw SPCE
     37      13    1  -0.8476  1.012370e+01  1.288705e+01  5.344671e+00  # Ow SPCE
     38      13    2   0.4238  9.458042e+00  1.347674e+01  5.802008e+00  # Hw SPCE
     39      13    2   0.4238  1.066990e+01  1.343185e+01  4.708379e+00  # Hw SPCE
     40      14    1  -0.8476  1.349990e+01  4.906816e+00  2.175847e+01  # Ow SPCE
     41      14    2   0.4238  1.349558e+01  3.906847e+00  2.176508e+01  # Hw SPCE
     42      14    2   0.4238  1.255909e+01  5.244406e+00  2.178877e+01  # Hw SPCE
     43      15    1  -0.8476  5.822771e+00  4.348153e+00  1.519197e+00  # Ow SPCE
     44      15    2   0.4238  5.645620e+00  5.332336e+00  1.518136e+00  # Hw SPCE
     45      15    2   0.4238  6.809526e+00  4.187076e+00  1.500006e+00  # Hw SPCE
     46      16    1  -0.8476  5.383326e+00  8.883074e+00  4.326107e+00  # Ow SPCE
     47      16    2   0.4238  4.664939e+00  9.464037e+00  3.943480e+00  # Hw SPCE
     48      16    2   0.4238  5.093672e+00  7.926667e+00  4.288889e+00  # Hw SPCE
     49      17    1  -0.8476  1.099312e+01  4.071132e+00  2.074416e+01  # Ow SPCE
     50      17    2   0.4238  1.042437e+01  4.489896e+00  2.003624e+01  # Hw SPCE
     51      17    2   0.4238  1.096047e+01  3.075878e+00  2.065249e+01  # Hw SPCE
     52      18    1  -0.8476  9.647589e+00  6.047945e+00  2.599634e+01  # Ow SPCE
     53      18    2   0.4238  1.005773e+01  5.218544e+00  2.637566e+01  # Hw SPCE
     54      18    2   0.4238  9.754422e+00  6.047926e+00  2.500207e+01  # Hw SPCE
     55      19    1  -0.8476  2.757635e+00  7.471945e+00  1.561112e+01  # Ow SPCE
     56      19    2   0.4238  3.689428e+00  7.112692e+00  1.555916e+01  # Hw SPCE
     57      19    2   0.4238  2.110088e+00  6.712021e+00  1.566766e+01  # Hw SPCE
     58      20    1  -0.8476  1.034000e+01  1.350001e+01  1.526212e+01  # Ow SPCE
     59      20    2   0.4238  1.113245e+01  1.300994e+01  1.489900e+01  # Hw SPCE
     60      20    2   0.4238  9.827790e+00  1.289801e+01  1.587469e+01  # Hw SPCE
     61      21    1  -0.8476  8.606733e+00  1.337620e+01  2.509796e+01  # Ow SPCE
     62      21    2   0.4238  8.472069e+00  1.320665e+01  2.607424e+01  # Hw SPCE
     63      21    2   0.4238  9.581591e+00  1.349965e+01  2.491246e+01  # Hw SPCE
     64      22    1  -0.8476  1.126544e+01  1.333431e+01  2.753204e+01  # Ow SPCE
     65      22    2   0.4238  1.049049e+01  1.349987e+01  2.692208e+01  # Hw SPCE
     66      22    2   0.4238  1.098641e+01  1.349991e+01  2.847793e+01  # Hw SPCE
     67      23    1  -0.8476  1.242112e+01  5.094867e+00  1.417273e+01  # Ow SPCE
     68      23    2   0.4238  1.193035e+01  4.285109e+00  1.385111e+01  # Hw SPCE
     69      23    2   0.4238  1.219361e+01  5.263450e+00  1.513180e+01  # Hw SPCE
     70      24    1  -0.8476  2.199309e+00  2.739759e+00  2.624856e+01  # Ow SPCE
     71      24    2   0.4238  1.926480e+00  1.793669e+00  2.642313e+01  # Hw SPCE
     72      24    2   0.4238  1.500069e+00  3.359472e+00  2.660495e+01  # Hw SPCE
     73      25    1  -0.8476  9.657733e+00  5.466727e+00  9.489158e+00  # Ow SPCE
     74      25    2   0.4238  8.672002e+00  5.621623e+00  9.555050e+00  # Hw SPCE
     75      25    2   0.4238  1.011053e+01  5.854979e+00  1.029180e+01  # Hw SPCE
     76      26    1  -0.8476  2.316021e+00  8.061748e+00  7.915651e+00  # Ow SPCE
     77      26    2   0.4238  1.806558e+00  8.253516e+00  8.754502e+00  # Hw SPCE
     78      26    2   0.4238  2.010772e+00  7.190096e+00  7.532185e+00  # Hw SPCE
     79      27    1  -0.8476  3.554242e+00  8.288233e+00  2.389011e+01  # Ow SPCE
     80      27    2   0.4238  3.625412e+00  7.722499e+00  2.471162e+01  # Hw SPCE
     81      27    2   0.4238  4.331751e+00  8.102676e+00  2.328924e+01  # Hw SPCE
     82      28    1  -0.8476  5.002367e+00  1.044317e+01  1.664216e+01  # Ow SPCE
     83      28    2   0.4238  5.263251e+00  9.513559e+00  1.690247e+01  # Hw SPCE
     84      28    2   0.4238  4.093160e+00  1.064805e+01  1.700461e+01  # Hw SPCE
     85      29    1  -0.8476  8.451335e+00  1.250543e+01  2.815954e+01  # Ow SPCE
     86      29    2   0.4238  9.295916e+00  1.209216e+01  2.849997e+01  # Hw SPCE
     87      29    2   0.4238  8.504846e+00  1.349948e+01  2.825442e+01  # Hw SPCE
     88      30    1  -0.8476  5.101528e+00  4.570594e+00  2.803350e+01  # Ow SPCE
     89      30    2   0.4238  4.724790e+00  3.770339e+00  2.850004e+01  # Hw SPCE
     90      30    2   0.4238  6.054945e+00  4.697737e+00  2.830705e+01  # Hw SPCE
     91      31    1  -0.8476  5.113489e+00  1.208269e+01  2.454784e+01  # Ow SPCE
     92      31    2   0.4238  5.516526e+00  1.138978e+01  2.514569e+01  # Hw SPCE
     93      31    2   0.4238  4.116390e+00  1.203477e+01  2.460697e+01  # Hw SPCE
     94      32    1  -0.8476  8.276546e+00  8.986406e+00  1.675568e+01  # Ow SPCE
     95      32    2   0.4238  8.851471e+00  9.804278e+00  1.677903e+01  # Hw SPCE
     96      32    2   0.4238  8.852268e+00  8.172066e+00  1.682912e+01  # Hw SPCE
     97      33    1  -0.8476  9.084796e+00  8.171240e+00  1.175149e+01  # Ow SPCE
     98      33    2   0.4238  9.634109e+00  7.340635e+00  1.184287e+01  # Hw SPCE
     99      33    2   0.4238  9.689473e+00  8.964153e+00  1.167629e+01  # Hw SPCE
    100      34    1  -0.8476  9.704487e+00  9.288404e+00  2.342132e+01  # Ow SPCE
    101      34    2   0.4238  8.707323e+00  9.341356e+00  2.336783e+01  # Hw SPCE
    102      34    2   0.4238  9.969727e+00  8.862200e+00  2.428619e+01  # Hw SPCE
    103      35    1  -0.8476  4.112071e+00  7.112163e+00  2.844790e+01  # Ow SPCE
    104      35    2   0.4238  3.701217e+00  6.201959e+00  2.850012e+01  # Hw SPCE
    105      35    2   0.4238  5.108264e+00  7.027501e+00  2.842716e+01  # Hw SPCE
    106      36    1  -0.8476  1.059110e+01  7.029846e+00  2.318135e+01  # Ow SPCE
    107      36    2   0.4238  9.881601e+00  7.286942e+00  2.252521e+01  # Hw SPCE
    108      36    2   0.4238  1.081054e+01  6.060346e+00  2.307218e+01  # Hw SPCE
    109      37    1  -0.8476  1.184310e+01  8.484642e+00  2.210615e+01  # Ow SPCE
    110      37    2   0.4238  1.162098e+01  9.428630e+00  2.235018e+01  # Hw SPCE
    111      37    2   0.4238  1.279769e+01  8.431971e+00  2.181292e+01  # Hw SPCE
    112      38    1  -0.8476  2.062360e+00  3.526951e+00  2.410009e+01  # Ow SPCE
    113      38    2   0.4238  1.512540e+00  4.279040e+00  2.373670e+01  # Hw SPCE
    114      38    2   0.4238  1.499542e+00  2.702779e+00  2.416314e+01  # Hw SPCE
    115      39    1  -0.8476  1.307072e+01  7.059179e+00  1.608856e+01  # Ow SPCE
    116      39    2   0.4238  1.301477e+01  7.848989e+00  1.669936e+01  # Hw SPCE
    117      39    2   0.4238  1.350003e+01  6.295136e+00  1.657016e+01  # Hw SPCE
    118      40    1  -0.8476  1.186687e+01  6.894395e+00  2.049730e+01  # Ow SPCE
    119      40    2   0.4238  1.166198e+01  7.758401e+00  2.003739e+01  # Hw SPCE
    120      40    2   0.4238  1.101675e+01  6.479972e+00  2.082221e+01  # Hw SPCE
    121      41    1  -0.8476  1.350001e+01  1.016297e+01  3.182877e+00  # Ow SPCE
    122      41    2   0.4238  1.321714e+01  9.399634e+00  3.763658e+00  # Hw SPCE
    123      41    2   0.4238  1.325077e+01  1.102611e+01  3.622029e+00  # Hw SPCE
    124      42    1  -0.8476  9.208388e+00  2.713178e+00  1.040798e+01  # Ow SPCE
    125      42    2   0.4238  8.864953e+00  3.647224e+00  1.050601e+01  # Hw SPCE
    126      42    2   0.4238  1.005116e+01  2.722690e+00  9.869790e+00  # Hw SPCE
    127      43    1  -0.8476  1.192093e+01  1.147064e+01  2.850008e+01  # Ow SPCE
    128      43    2   0.4238  1.113302e+01  1.085861e+01  2.843206e+01  # Hw SPCE
    129      43    2   0.4238  1.247195e+01  1.139827e+01  2.766874e+01  # Hw SPCE
    130      44    1  -0.8476  6.523954e+00  5.612490e+00  1.004117e+01  # Ow SPCE
    131      44    2   0.4238  6.215392e+00  4.661409e+00  1.005648e+01  # Hw SPCE
    132      44    2   0.4238  5.732506e+00  6.218426e+00  9.960851e+00  # Hw SPCE
    133      45    1  -0.8476  3.823645e+00  1.085332e+01  1.483040e+01  # Ow SPCE
    134      45    2   0.4238  3.902018e+00  1.184942e+01  1.487091e+01  # Hw SPCE
    135      45    2   0.4238  2.999634e+00  1.060423e+01  1.432152e+01  # Hw SPCE
    136      46    1  -0.8476  6.861302e+00  2.054233e+00  2.520117e+01  # Ow SPCE
    137      46    2   0.4238  6.041143e+00  1.500085e+00  2.505883e+01  # Hw SPCE
    138      46    2   0.4238  7.545709e+00  1.516345e+00  2.569337e+01  # Hw SPCE
    139      47    1  -0.8476  6.783099e+00  2.043578e+00  1.334674e+01  # Ow SPCE
    140      47    2   0.4238  5.984051e+00  1.500159e+00  1.308941e+01  # Hw SPCE
    141      47    2   0.4238  7.612355e+00  1.500969e+00  1.321291e+01  # Hw SPCE
    142      48    1  -0.8476  6.664172e+00  9.085013e+00  6.444941e+00  # Ow SPCE
    143      48    2   0.4238  6.010753e+00  9.808128e+00  6.221003e+00  # Hw SPCE
    144      48    2   0.4238  7.150768e+00  9.323998e+00  7.285244e+00  # Hw SPCE
    145      49    1  -0.8476  6.982598e+00  1.322138e+01  1.411660e+01  # Ow SPCE
    146      49    2   0.4238  7.860397e+00  1.349999e+01  1.372692e+01  # Hw SPCE
    147      49    2   0.4238  6.263545e+00  1.333059e+01  1.343028e+01  # Hw SPCE
    148      50    1  -0.8476  9.900662e+00  3.789227e+00  2.821618e+01  # Ow SPCE
    149      50    2   0.4238  1.025269e+01  4.681124e+00  2.850008e+01  # Hw SPCE
    150      50    2   0.4238  1.066535e+01  3.184900e+00  2.799249e+01  # Hw SPCE
    151      51    1  -0.8476  5.702846e+00  1.031660e+01  2.066971e+01  # Ow SPCE
    152      51    2   0.4238  5.450459e+00  9.423208e+00  2.104139e+01  # Hw SPCE
    153      51    2   0.4238  4.877449e+00  1.086163e+01  2.052250e+01  # Hw SPCE
    154      52    1  -0.8476  1.204458e+01  8.366443e+00  2.482396e+01  # Ow SPCE
    155      52    2   0.4238  1.272056e+01  8.680535e+00  2.549059e+01  # Hw SPCE
    156      52    2   0.4238  1.233567e+01  7.489277e+00  2.444207e+01  # Hw SPCE
    157      53    1  -0.8476  1.069416e+01  1.271556e+01  2.317239e+01  # Ow SPCE
    158      53    2   0.4238  1.167593e+01  1.290506e+01  2.315787e+01  # Hw SPCE
    159      53    2   0.4238  1.019775e+01  1.349996e+01  2.280051e+01  # Hw SPCE
    160      54    1  -0.8476  7.847819e+00  1.212648e+01  1.132299e+01  # Ow SPCE
    161      54    2   0.4238  7.772302e+00  1.312260e+01  1.136812e+01  # Hw SPCE
    162      54    2   0.4238  8.807835e+00  1.186067e+01  1.141081e+01  # Hw SPCE
    163      55    1  -0.8476  2.994998e+00  5.932290e+00  1.381055e+01  # Ow SPCE
    164      55    2   0.4238  3.958035e+00  6.092839e+00  1.359425e+01  # Hw SPCE
    165      55    2   0.4238  2.629739e+00  5.227640e+00  1.320223e+01  # Hw SPCE
    166      56    1  -0.8476  4.288008e+00  4.579749e+00  1.111410e+01  # Ow SPCE
    167      56    2   0.4238  3.531888e+00  4.155709e+00  1.061563e+01  # Hw SPCE
    168      56    2   0.4238  3.989714e+00  5.457815e+00  1.148829e+01  # Hw SPCE
    169      57    1  -0.8476  7.095805e+00  1.079327e+01  2.373507e+01  # Ow SPCE
    170      57    2   0.4238  6.678695e+00  1.135295e+01  2.301899e+01  # Hw SPCE
    171      57    2   0.4238  6.624600e+00  9.912766e+00  2.378682e+01  # Hw SPCE
    172      58    1  -0.8476  1.271631e+01  2.448945e+00  5.603376e+00  # Ow SPCE
    173      58    2   0.4238  1.303027e+01  1.499989e+00  5.573114e+00  # Hw SPCE
    174      58    2   0.4238  1.349999e+01  3.062543e+00  5.506694e+00  # Hw SPCE
    175      59    1  -0.8476  4.251059e+00  3.552500e+00  2.627859e+01  # Ow SPCE
    176      59    2   0.4238  4.338162e+00  2.718093e+00  2.573437e+01  # Hw SPCE
    177      59    2   0.4238  3.894214e+00  4.289281e+00  2.570429e+01  # Hw SPCE
    178      60    1  -0.8476  1.023464e+01  2.358799e+00  2.280130e+01  # Ow SPCE
    179      60    2   0.4238  1.065671e+01  1.780043e+00  2.349908e+01  # Hw SPCE
    180      60    2   0.4238  9.875119e+00  1.785167e+00  2.206530e+01  # Hw SPCE
    181      61    1  -0.8476  8.185076e+00  7.778096e+00  3.441462e+00  # Ow SPCE
    182      61    2   0.4238  8.607990e+00  8.683872e+00  3.414756e+00  # Hw SPCE
    183      61    2   0.4238  7.205853e+00  7.872607e+00  3.620876e+00  # Hw SPCE
    184      62    1  -0.8476  7.443208e+00  7.515326e+00  2.291264e+01  # Ow SPCE
    185      62    2   0.4238  7.089586e+00  6.604673e+00  2.312633e+01  # Hw SPCE
    186      62    2   0.4238  6.701538e+00  8.087015e+00  2.256179e+01  # Hw SPCE
    187      63    1  -0.8476  2.612984e+00  6.308689e+00  2.239833e+01  # Ow SPCE
    188      63    2   0.4238  3.119043e+00  6.160081e+00  2.324793e+01  # Hw SPCE
    189      63    2   0.4238  2.303730e+00  5.429277e+00  2.203640e+01  # Hw SPCE
    190      64    1  -0.8476  8.084680e+00  1.287092e+01  1.742543e+01  # Ow SPCE
    191      64    2   0.4238  8.226841e+00  1.190354e+01  1.721576e+01  # Hw SPCE
    192      64    2   0.4238  7.250351e+00  1.297555e+01  1.796667e+01  # Hw SPCE
    193      65    1  -0.8476  5.888408e+00  1.499939e+00  2.794330e+01  # Ow SPCE
    194      65    2   0.4238  5.806736e+00  2.269322e+00  2.730975e+01  # Hw SPCE
    195      65    2   0.4238  6.712431e+00  1.611572e+00  2.849875e+01  # Hw SPCE
    196      66    1  -0.8476  4.656865e+00  1.199092e+01  2.239768e+01  # Ow SPCE
    197      66    2   0.4238  4.526496e+00  1.104254e+01  2.268677e+01  # Hw SPCE
    198      66    2   0.4238  3.766459e+00  1.243661e+01  2.230530e+01  # Hw SPCE
    199      67    1  -0.8476  6.760870e+00  6.569921e+00  2.093482e+01  # Ow SPCE
    200      67    2   0.4238  6.454100e+00  6.812310e+00  2.001441e+01  # Hw SPCE
    201      67    2   0.4238  6.602838e+00  5.595230e+00  2.109294e+01  # Hw SPCE
    202      68    1  -0.8476  1.271388e+01  1.216388e+01  1.362498e+01  # Ow SPCE
    203      68    2   0.4238  1.349990e+01  1.229878e+01  1.422828e+01  # Hw SPCE
    204      68    2   0.4238  1.268512e+01  1.289743e+01  1.294595e+01  # Hw SPCE
    205      69    1  -0.8476  6.562421e+00  3.458522e+00  3.568479e+00  # Ow SPCE
    206      69    2   0.4238  7.209139e+00  2.785904e+00  3.928119e+00  # Hw SPCE
    207      69    2   0.4238  5.735681e+00  2.991470e+00  3.254850e+00  # Hw SPCE
    208      70    1  -0.8476  1.024142e+01  2.226728e+00  1.780156e+01  # Ow SPCE
    209      70    2   0.4238  1.084777e+01  1.806270e+00  1.712661e+01  # Hw SPCE
    210      70    2   0.4238  1.078848e+01  2.700024e+00  1.849200e+01  # Hw SPCE
    211      71    1  -0.8476  5.879884e+00  6.998799e+00  2.568351e+01  # Ow SPCE
    212      71    2   0.4238  5.163884e+00  7.404385e+00  2.625171e+01  # Hw SPCE
    213      71    2   0.4238  5.790429e+00  7.333321e+00  2.474538e+01  # Hw SPCE
    214      72    1  -0.8476  9.141536e+00  7.747280e+00  1.943271e+01  # Ow SPCE
    215      72    2   0.4238  9.145075e+00  6.785550e+00  1.970669e+01  # Hw SPCE
    216      72    2   0.4238  9.866961e+00  7.905710e+00  1.876289e+01  # Hw SPCE
    217      73    1  -0.8476  1.297984e+01  8.845425e+00  8.192583e+00  # Ow SPCE
    218      73    2   0.4238  1.203125e+01  8.598073e+00  7.995124e+00  # Hw SPCE
    219      73    2   0.4238  1.350060e+01  8.020475e+00  8.412291e+00  # Hw SPCE
    220      74    1  -0.8476  2.069150e+00  1.204074e+01  2.380158e+01  # Ow SPCE
    221      74    2   0.4238  1.499812e+00  1.286079e+01  2.385967e+01  # Hw SPCE
    222      74    2   0.4238  1.499800e+00  1.125646e+01  2.355512e+01  # Hw SPCE
    223      75    1  -0.8476  8.751983e+00  3.301717e+00  1.641640e+01  # Ow SPCE
    224      75    2   0.4238  7.912855e+00  2.850405e+00  1.611278e+01  # Hw SPCE
    225      75    2   0.4238  8.568376e+00  4.270814e+00  1.658114e+01  # Hw SPCE
    226      76    1  -0.8476  1.052652e+01  3.314331e+00  5.522879e+00  # Ow SPCE
    227      76    2   0.4238  1.039142e+01  2.471790e+00  6.044295e+00  # Hw SPCE
    228      76    2   0.4238  9.682416e+00  3.546034e+00  5.039342e+00  # Hw SPCE
    229      77    1  -0.8476  9.689074e+00  1.028153e+01  1.979012e+01  # Ow SPCE
    230      77    2   0.4238  9.055990e+00  9.922521e+00  1.910432e+01  # Hw SPCE
    231      77    2   0.4238  1.017917e+01  9.523527e+00  2.022052e+01  # Hw SPCE
    232      78    1  -0.8476  8.437807e+00  1.350000e+01  3.848657e+00  # Ow SPCE
    233      78    2   0.4238  7.467928e+00  1.339018e+01  4.066084e+00  # Hw SPCE
    234      78    2   0.4238  8.823938e+00  1.261435e+01  3.590735e+00  # Hw SPCE
    235      79    1  -0.8476  1.070775e+01  6.464598e+00  1.622242e+01  # Ow SPCE
    236      79    2   0.4238  1.087594e+01  7.438489e+00  1.637490e+01  # Hw SPCE
    237      79    2   0.4238  9.735733e+00  6.319087e+00  1.603800e+01  # Hw SPCE
    238      80    1  -0.8476  2.253830e+00  3.451776e+00  4.677646e+00  # Ow SPCE
    239      80    2   0.4238  1.904490e+00  3.564128e+00  3.747410e+00  # Hw SPCE
    240      80    2   0.4238  1.500008e+00  3.214502e+00  5.290388e+00  # Hw SPCE
    241      81    1  -0.8476  2.931337e+00  8.111125e+00  1.351288e+01  # Ow SPCE
    242      81    2   0.4238  2.173167e+00  8.759545e+00  1.344411e+01  # Hw SPCE
    243      81    2   0.4238  3.727854e+00  8.570153e+00  1.390640e+01  # Hw SPCE
    244      82    1  -0.8476  7.666490e+00  9.218049e+00  2.093999e+01  # Ow SPCE
    245      82    2   0.4238  8.410971e+00  8.655004e+00  2.129878e+01  # Hw SPCE
    246      82    2   0.4238  7.337552e+00  8.827268e+00  2.008029e+01  # Hw SPCE
    247      83    1  -0.8476  2.512372e+00  6.854025e+00  2.676765e+01  # Ow SPCE
    248      83    2   0.4238  1.775874e+00  6.275075e+00  2.711749e+01  # Hw SPCE
    249      83    2   0.4238  3.219827e+00  6.280339e+00  2.635487e+01  # Hw SPCE
    250      84    1  -0.8476  2.444601e+00  1.091348e+01  2.037456e+01  # Ow SPCE
    251      84    2   0.4238  1.499980e+00  1.058559e+01  2.038805e+01  # Hw SPCE
    252      84    2   0.4238  2.464602e+00  1.188253e+01  2.062061e+01  # Hw SPCE
    253      85    1  -0.8476  4.279169e+00  2.376281e+00  1.871440e+01  # Ow SPCE
    254      85    2   0.4238  4.526806e+00  1.500044e+00  1.912779e+01  # Hw SPCE
    255      85    2   0.4238  5.067998e+00  2.990462e+00  1.873741e+01  # Hw SPCE
    256      86    1  -0.8476  7.574742e+00  1.135324e+01  4.889464e+00  # Ow SPCE
    257      86    2   0.4238  6.869680e+00  1.170321e+01  5.506236e+00  # Hw SPCE
    258      86    2   0.4238  7.856229e+00  1.044138e+01  5.188244e+00  # Hw SPCE
    259      87    1  -0.8476  6.011359e+00  2.657909e+00  2.088396e+01  # Ow SPCE
    260      87    2   0.4238  5.228169e+00  2.088925e+00  2.113470e+01  # Hw SPCE
    261      87    2   0.4238  5.714198e+00  3.607102e+00  2.078039e+01  # Hw SPCE
    262      88    1  -0.8476  2.466110e+00  6.689036e+00  2.023686e+01  # Ow SPCE
    263      88    2   0.4238  2.545194e+00  7.684923e+00  2.019265e+01  # Hw SPCE
    264      88    2   0.4238  1.499890e+00  6.431695e+00  2.025082e+01  # Hw SPCE
    265      89    1  -0.8476  7.523533e+00  1.079420e+01  2.696640e+01  # Ow SPCE
    266      89    2   0.4238  7.534634e+00  1.121539e+01  2.605950e+01  # Hw SPCE
    267      89    2   0.4238  8.451282e+00  1.051741e+01  2.721673e+01  # Hw SPCE
    268      90    1  -0.8476  5.183158e+00  9.090036e+00  2.766533e+01  # Ow SPCE
    269      90    2   0.4238  5.725428e+00  9.432430e+00  2.689806e+01  # Hw SPCE
    270      90    2   0.4238  4.317218e+00  9.588182e+00  2.771004e+01  # Hw SPCE
    271      91    1  -0.8476  4.266544e+00  2.074349e+00  1.898190e+00  # Ow SPCE
    272      91    2   0.4238  4.102530e+00  2.976873e+00  1.500006e+00  # Hw SPCE
    273      91    2   0.4238  3.458639e+00  1.500000e+00  1.766234e+00  # Hw SPCE
    274      92    1  -0.8476  1.238599e+01  7.602350e+00  1.026461e+01  # Ow SPCE
    275      92    2   0.4238  1.160656e+01  7.493850e+00  1.088163e+01  # Hw SPCE
    276      92    2   0.4238  1.323142e+01  7.391372e+00  1.075527e+01  # Hw SPCE
    277      93    1  -0.8476  4.859919e+00  4.244704e+00  2.280184e+01  # Ow SPCE
    278      93    2   0.4238  5.514469e+00  3.507402e+00  2.296902e+01  # Hw SPCE
    279      93    2   0.4238  4.165681e+00  4.243659e+00  2.352158e+01  # Hw SPCE
    280      94    1  -0.8476  7.674837e+00  1.500007e+00  5.651374e+00  # Ow SPCE
    281      94    2   0.4238  8.102098e+00  2.332753e+00  6.003486e+00  # Hw SPCE
    282      94    2   0.4238  6.687077e+00  1.543165e+00  5.801267e+00  # Hw SPCE
    283      95    1  -0.8476  1.499761e+00  5.456110e+00  9.723431e+00  # Ow SPCE
    284      95    2   0.4238  2.045984e+00  4.847592e+00  9.147804e+00  # Hw SPCE
    285      95    2   0.4238  2.058568e+00  5.785530e+00  1.048449e+01  # Hw SPCE
    286      96    1  -0.8476  1.189383e+01  4.508826e+00  1.005767e+01  # Ow SPCE
    287      96    2   0.4238  1.228081e+01  5.405167e+00  1.027406e+01  # Hw SPCE
    288      96    2   0.4238  1.139635e+01  4.160003e+00  1.085192e+01  # Hw SPCE
    289      97    1  -0.8476  1.292099e+01  7.437666e+00  6.332341e+00  # Ow SPCE
    290      97    2   0.4238  1.349643e+01  8.233420e+00  6.143522e+00  # Hw SPCE
    291      97    2   0.4238  1.350004e+01  6.639291e+00  6.497592e+00  # Hw SPCE
    292      98    1  -0.8476  9.930892e+00  8.950634e+00  2.677398e+01  # Ow SPCE
    293      98    2   0.4238  1.073085e+01  9.330028e+00  2.630909e+01  # Hw SPCE
    294      98    2   0.4238  1.002683e+01  9.079275e+00  2.776102e+01  # Hw SPCE
    295      99    1  -0.8476  8.455848e+00  1.099624e+01  1.431164e+01  # Ow SPCE
    296      99    2   0.4238  8.223595e+00  1.165145e+01  1.503051e+01  # Hw SPCE
    297      99    2   0.4238  8.118835e+00  1.133278e+01  1.343235e+01  # Hw SPCE
    298     100    1  -0.8476  7.151716e+00  1.350007e+01  2.294069e+01  # Ow SPCE
    299     100    2   0.4238  7.186933e+00  1.330646e+01  2.196025e+01  # Hw SPCE
    300     100    2   0.4238  6.200462e+00  1.348801e+01  2.324886e+01  # Hw SPCE
    301     101    1  -0.8476  4.233140e+00  1.112082e+01  1.095868e+01  # Ow SPCE
    302     101    2   0.4238  4.926519e+00  1.123030e+01  1.024648e+01  # Hw SPCE
    303     101    2   0.4238  4.553561e+00  1.154781e+01  1.180427e+01  # Hw SPCE
    304     102    1  -0.8476  1.350000e+01  9.161321e+00  1.481464e+01  # Ow SPCE
    305     102    2   0.4238  1.257253e+01  8.791272e+00  1.476119e+01  # Hw SPCE
    306     102    2   0.4238  1.346682e+01  1.015727e+01  1.473112e+01  # Hw SPCE
    307     103    1  -0.8476  3.529667e+00  7.157299e+00  9.588849e+00  # Ow SPCE
    308     103    2   0.4238  3.703184e+00  6.294159e+00  9.114632e+00  # Hw SPCE
    309     103    2   0.4238  4.285746e+00  7.789164e+00  9.418289e+00  # Hw SPCE
    310     104    1  -0.8476  1.016913e+01  1.139652e+01  2.517899e+01  # Ow SPCE
    311     104    2   0.4238  1.015065e+01  1.145109e+01  2.617733e+01  # Hw SPCE
    312     104    2   0.4238  9.352259e+00  1.091854e+01  2.485612e+01  # Hw SPCE
    313     105    1  -0.8476  7.646461e+00  8.331832e+00  2.537626e+01  # Ow SPCE
    314     105    2   0.4238  8.158009e+00  9.183221e+00  2.549226e+01  # Hw SPCE
    315     105    2   0.4238  8.238237e+00  7.641481e+00  2.496007e+01  # Hw SPCE
    316     106    1  -0.8476  2.076480e+00  1.140022e+01  1.062594e+01  # Ow SPCE
    317     106    2   0.4238  1.499963e+00  1.221624e+01  1.066762e+01  # Hw SPCE
    318     106    2   0.4238  1.500009e+00  1.058983e+01  1.052134e+01  # Hw SPCE
    319     107    1  -0.8476  7.622271e+00  1.246644e+01  9.132990e+00  # Ow SPCE
    320     107    2   0.4238  6.913818e+00  1.176657e+01  9.041982e+00  # Hw SPCE
    321     107    2   0.4238  8.515106e+00  1.202641e+01  9.229023e+00  # Hw SPCE
    322     108    1  -0.8476  2.308424e+00  2.847642e+00  2.161690e+01  # Ow SPCE
    323     108    2   0.4238  3.126440e+00  3.414018e+00  2.171724e+01  # Hw SPCE
    324     108    2   0.4238  1.500020e+00  3.434590e+00  2.157246e+01  # Hw SPCE
    325     109    1  -0.8476  2.900394e+00  1.503724e+00  1.562760e+01  # Ow SPCE
    326     109    2   0.4238  2.673281e+00  1.500000e+00  1.660146e+01  # Hw SPCE
    327     109    2   0.4238  2.058516e+00  1.539914e+00  1.508914e+01  # Hw SPCE
    328     110    1  -0.8476  1.500007e+00  9.957215e+00  6.102014e+00  # Ow SPCE
    329     110    2   0.4238  1.743118e+00  9.052233e+00  5.752866e+00  # Hw SPCE
    330     110    2   0.4238  1.526579e+00  9.947013e+00  7.101608e+00  # Hw SPCE
    331     111    1  -0.8476  9.192618e+00  1.151680e+01  6.792276e+00  # Ow SPCE
    332     111    2   0.4238  9.632674e+00  1.065378e+01  6.544167e+00  # Hw SPCE
    333     111    2   0.4238  8.278875e+00  1.133293e+01  7.154584e+00  # Hw SPCE
    334     112    1  -0.8476  7.249167e+00  1.857941e+00  1.796093e+01  # Ow SPCE
    335     112    2   0.4238  8.179179e+00  1.500099e+00  1.804476e+01  # Hw SPCE
    336     112    2   0.4238  6.685945e+00  1.500080e+00  1.870573e+01  # Hw SPCE
    337     113    1  -0.8476  1.211174e+01  1.288582e+01  6.459705e+00  # Ow SPCE
    338     113    2   0.4238  1.289795e+01  1.340341e+01  6.122111e+00  # Hw SPCE
    339     113    2   0.4238  1.149497e+01  1.349990e+01  6.952152e+00  # Hw SPCE
    340     114    1  -0.8476  4.131451e+00  3.117171e+00  1.464544e+01  # Ow SPCE
    341     114    2   0.4238  3.977743e+00  4.097751e+00  1.452363e+01  # Hw SPCE
    342     114    2   0.4238  5.104056e+00  2.915379e+00  1.453004e+01  # Hw SPCE
    343     115    1  -0.8476  4.492197e+00  4.352006e+00  1.684039e+01  # Ow SPCE
    344     115    2   0.4238  3.695470e+00  3.993296e+00  1.732676e+01  # Hw SPCE
    345     115    2   0.4238  4.358282e+00  5.325212e+00  1.665348e+01  # Hw SPCE
    346     116    1  -0.8476  1.499639e+00  7.170756e+00  2.484047e+01  # Ow SPCE
    347     116    2   0.4238  1.606984e+00  6.176549e+00  2.484588e+01  # Hw SPCE
    348     116    2   0.4238  1.499961e+00  7.500902e+00  2.389654e+01  # Hw SPCE
    349     117    1  -0.8476  1.241227e+01  9.199709e+00  2.772144e+01  # Ow SPCE
    350     117    2   0.4238  1.206023e+01  8.679635e+00  2.849964e+01  # Hw SPCE
    351     117    2   0.4238  1.341206e+01  9.185140e+00  2.773567e+01  # Hw SPCE
    352     118    1  -0.8476  3.475894e+00  9.096560e+00  1.878529e+01  # Ow SPCE
    353     118    2   0.4238  3.386763e+00  8.733506e+00  1.785779e+01  # Hw SPCE
    354     118    2   0.4238  4.411799e+00  9.418253e+00  1.892879e+01  # Hw SPCE
    355     119    1  -0.8476  1.304002e+01  1.349985e+01  9.420259e+00  # Ow SPCE
    356     119    2   0.4238  1.290766e+01  1.300205e+01  8.563122e+00  # Hw SPCE
    357     119    2   0.4238  1.220478e+01  1.344877e+01  9.967768e+00  # Hw SPCE